 NUFEB Simulation

     99 atoms 
     2 atom types 
     99 bacilli 

  0.0e-4   1.00e+02  xlo xhi 
  0.0e-4   1.00e+02  ylo yhi 
  0.0e-4   1.00e+01  zlo zhi 

 Atoms 

1 1 1 370 2.3e-05 1.1e-05 4.8e-06 1 
2 1 1 370 6.2e-06 7.5e-05 2.0e-09 1 
3 1 1 370 4.4e-05 9.6e-05 2.9e-06 1 
4 1 1 370 5.6e-05 3.4e-06 5.2e-06 1 
5 1 1 370 7.9e-05 4.2e-05 2.4e-08 1 
6 1 1 370 4.3e-05 5.2e-06 8.8e-07 1 
7 1 1 370 1.2e-06 7.6e-05 7.4e-06 1 
8 1 1 370 2.1e-05 7.2e-05 9.1e-06 1 
9 1 1 370 6.2e-06 7.6e-05 9.2e-06 1 
10 1 1 370 3.8e-05 4.3e-05 1.6e-06 1 
11 1 1 370 4.6e-05 5.2e-05 1.e-05 1 
12 1 1 370 3.8e-05 5.8e-05 2.3e-06 1 
13 1 1 370 3.9e-05 4.1e-05 5.2e-06 1 
14 1 1 370 4.7e-05 1.5e-05 9.5e-06 1 
15 1 1 370 4.1e-05 9.4e-05 9.6e-07 1 
16 1 1 370 6.2e-05 9.5e-05 4.5e-06 1 
17 1 1 370 3.6e-05 1.2e-05 1.1e-06 1 
18 1 1 370 4.1e-05 2.3e-05 2.9e-06 1 
19 1 1 370 7.9e-05 5.7e-05 9.7e-06 1 
20 1 1 370 8.0e-05 3.7e-05 6.9e-06 1 
21 1 1 370 1.1e-05 6.9e-05 8.4e-07 1 
22 1 1 370 6.8e-05 7.e-05 4.7e-06 1 
23 1 1 370 7.5e-05 5.7e-05 9.e-06 1 
24 1 1 370 3.e-05 8.0e-05 7.7e-06 1 
25 1 1 370 7.4e-05 6.4e-05 7.6e-06 1 
26 1 1 370 9.0e-05 2.9e-05 2.5e-07 1 
27 1 1 370 2.0e-05 6.5e-06 4.2e-06 1 
28 1 1 370 9.1e-05 3.2e-05 6.9e-07 1 
29 1 1 370 5.7e-06 8.2e-05 3.5e-06 1 
30 1 1 370 8.9e-05 4.8e-05 5.7e-06 1 
31 1 1 370 5.2e-05 8.6e-05 5.1e-06 1 
32 1 1 370 8.6e-05 6.8e-05 5.0e-06 1 
33 1 1 370 9.9e-06 7.0e-05 4.9e-06 1 
34 1 1 370 8.7e-05 6.2e-05 2.4e-06 1 
35 1 1 370 6.5e-05 4.7e-05 4.4e-06 1 
36 1 1 370 1.0e-05 7.6e-06 5.4e-06 1 
37 1 1 370 7.9e-05 2.1e-05 6.8e-06 1 
38 1 1 370 2.6e-05 6.6e-05 7.1e-06 1 
39 1 1 370 3.8e-05 5.7e-06 9.1e-06 1 
40 1 1 370 1.7e-05 6.1e-05 1.6e-06 1 
41 1 1 370 7.5e-06 5.8e-05 4.8e-06 1 
42 1 1 370 3.7e-05 2.6e-05 4.1e-06 1 
43 1 1 370 3.8e-05 1.1e-05 9.3e-06 1 
44 1 1 370 2.3e-05 4.2e-05 1.e-05 1 
45 1 1 370 2.9e-05 2.9e-06 1.2e-06 1 
46 1 1 370 9.3e-06 1.8e-05 6.1e-06 1 
47 1 1 370 2.6e-05 8.2e-05 6.8e-06 1 
48 1 1 370 7.1e-05 9.5e-05 4.7e-07 1 
49 1 1 370 6.5e-05 4.7e-05 9.0e-06 1 
50 1 1 370 7.4e-05 9.8e-05 6.3e-06 1 
51 1 1 370 4.5e-05 7.7e-05 1.e-05 1 
52 1 1 370 9.1e-05 4.6e-05 3.9e-06 1 
53 1 1 370 4.9e-05 6.1e-05 2.5e-06 1 
54 1 1 370 9.3e-05 8.8e-05 6.6e-06 1 
55 1 1 370 1.7e-05 7.6e-05 3.6e-06 1 
56 1 1 370 1.9e-07 6.8e-05 7.6e-06 1 
57 1 1 370 5.7e-05 9.8e-05 3.2e-06 1 
58 1 1 370 9.1e-05 1.7e-05 3.5e-06 1 
59 1 1 370 4.5e-05 1.3e-05 9.1e-06 1 
60 1 1 370 2.7e-05 9.4e-05 8.7e-06 1 
61 1 1 370 9.9e-06 2.4e-05 5.8e-06 1 
62 1 1 370 6.2e-06 9.4e-05 6.1e-06 1 
63 1 1 370 8.5e-05 5.8e-05 9.9e-06 1 
64 1 1 370 9.4e-05 7.4e-05 3.0e-06 1 
65 1 1 370 1.2e-05 9.6e-05 7.2e-07 1 
66 1 1 370 6.4e-05 6.8e-05 4.5e-06 1 
67 2 1 236 8.9e-05 3.3e-06 4.7e-06 1 
68 2 1 236 2.9e-05 4.1e-05 9.1e-06 1 
69 2 1 236 3.7e-05 9.8e-05 3.4e-06 1 
70 2 1 236 7.5e-05 5.2e-05 8.4e-06 1 
71 2 1 236 7.9e-05 9.8e-05 7.6e-06 1 
72 2 1 236 1.9e-05 2.9e-05 3.6e-07 1 
73 2 1 236 9.9e-05 3.2e-05 8.1e-06 1 
74 2 1 236 8.7e-05 5.6e-05 1.1e-08 1 
75 2 1 236 3.8e-05 9.7e-05 6.6e-06 1 
76 2 1 236 3.2e-05 7.8e-05 9.1e-06 1 
77 2 1 236 9.5e-05 3.4e-05 2.4e-06 1 
78 2 1 236 2.4e-05 1.7e-05 3.e-06 1 
79 2 1 236 6.1e-05 3.6e-05 8.6e-06 1 
80 2 1 236 7.0e-05 6.4e-05 9.2e-06 1 
81 2 1 236 4.6e-05 1.7e-05 5.2e-06 1 
82 2 1 236 2.9e-05 8.3e-05 5.3e-07 1 
83 2 1 236 9.2e-05 9.1e-06 6.1e-06 1 
84 2 1 236 2.7e-05 5.1e-05 8.6e-06 1 
85 2 1 236 9.9e-05 9.2e-05 1.2e-06 1 
86 2 1 236 5.2e-05 1.5e-05 1.7e-06 1 
87 2 1 236 2.2e-05 9.8e-06 1.2e-06 1 
88 2 1 236 2.4e-05 3.2e-05 1.5e-06 1 
89 2 1 236 4.e-06 7.9e-05 5.6e-06 1 
90 2 1 236 4.4e-05 5.6e-05 2.8e-06 1 
91 2 1 236 6.8e-05 4.4e-05 8.5e-06 1 
92 2 1 236 7.2e-05 6.1e-05 8.5e-06 1 
93 2 1 236 5.1e-05 9.3e-05 4.0e-06 1 
94 2 1 236 4.3e-06 2.5e-05 2.6e-06 1 
95 2 1 236 9.0e-05 2.1e-05 2.2e-06 1 
96 2 1 236 2.7e-05 2.7e-05 9.8e-06 1 
97 2 1 236 3.9e-05 6.7e-05 8.5e-06 1 
98 2 1 236 7.5e-06 7.5e-05 6.5e-06 1 
99 2 1 236 7.3e-05 8.5e-05 2.7e-06 1 

 Bacilli 

1 0 0 9.2e-23 0 0 0 6.4e-07 2.1e-06 0 1e-06 
2 0 0 9.2e-23 0 0 0 1.2e-06 1.9e-06 0 1e-06 
3 0 0 9.2e-23 0 0 0 2.2e-06 6.6e-08 0 1e-06 
4 0 0 9.2e-23 0 0 0 1.3e-06 1.7e-06 0 1e-06 
5 0 0 9.2e-23 0 0 0 2.1e-06 6.7e-07 0 1e-06 
6 0 0 9.2e-23 0 0 0 1.6e-06 1.5e-06 0 1e-06 
7 0 0 9.2e-23 0 0 0 2.2e-06 1.4e-07 0 1e-06 
8 0 0 9.2e-23 0 0 0 3.e-07 2.2e-06 0 1e-06 
9 0 0 9.2e-23 0 0 0 1.8e-06 1.3e-06 0 1e-06 
10 0 0 9.2e-23 0 0 0 2.0e-06 7.9e-07 0 1e-06 
11 0 0 9.2e-23 0 0 0 1.6e-06 1.5e-06 0 1e-06 
12 0 0 9.2e-23 0 0 0 6.7e-07 2.1e-06 0 1e-06 
13 0 0 9.2e-23 0 0 0 8.1e-07 2.0e-06 0 1e-06 
14 0 0 9.2e-23 0 0 0 1.9e-06 1.e-06 0 1e-06 
15 0 0 9.2e-23 0 0 0 2.1e-06 6.4e-07 0 1e-06 
16 0 0 9.2e-23 0 0 0 1.4e-07 2.2e-06 0 1e-06 
17 0 0 9.2e-23 0 0 0 2.2e-06 1.6e-07 0 1e-06 
18 0 0 9.2e-23 0 0 0 9.2e-07 2.e-06 0 1e-06 
19 0 0 9.2e-23 0 0 0 1.7e-06 1.4e-06 0 1e-06 
20 0 0 9.2e-23 0 0 0 1.3e-06 1.7e-06 0 1e-06 
21 0 0 9.2e-23 0 0 0 1.7e-06 1.4e-06 0 1e-06 
22 0 0 9.2e-23 0 0 0 1.5e-06 1.6e-06 0 1e-06 
23 0 0 9.2e-23 0 0 0 2.2e-06 1.0e-07 0 1e-06 
24 0 0 9.2e-23 0 0 0 1.4e-06 1.7e-06 0 1e-06 
25 0 0 9.2e-23 0 0 0 1.5e-06 1.6e-06 0 1e-06 
26 0 0 9.2e-23 0 0 0 1.3e-06 1.7e-06 0 1e-06 
27 0 0 9.2e-23 0 0 0 1.7e-06 1.4e-06 0 1e-06 
28 0 0 9.2e-23 0 0 0 8.0e-07 2.0e-06 0 1e-06 
29 0 0 9.2e-23 0 0 0 2.8e-07 2.2e-06 0 1e-06 
30 0 0 9.2e-23 0 0 0 2.1e-06 5.7e-07 0 1e-06 
31 0 0 9.2e-23 0 0 0 2.2e-06 2.4e-07 0 1e-06 
32 0 0 9.2e-23 0 0 0 2.e-06 9.7e-07 0 1e-06 
33 0 0 9.2e-23 0 0 0 7.7e-07 2.1e-06 0 1e-06 
34 0 0 9.2e-23 0 0 0 1.4e-06 1.7e-06 0 1e-06 
35 0 0 9.2e-23 0 0 0 7.4e-07 2.1e-06 0 1e-06 
36 0 0 9.2e-23 0 0 0 2.1e-06 6.7e-07 0 1e-06 
37 0 0 9.2e-23 0 0 0 2.2e-06 2.e-07 0 1e-06 
38 0 0 9.2e-23 0 0 0 1.4e-08 2.2e-06 0 1e-06 
39 0 0 9.2e-23 0 0 0 3.0e-08 2.2e-06 0 1e-06 
40 0 0 9.2e-23 0 0 0 8.4e-07 2.0e-06 0 1e-06 
41 0 0 9.2e-23 0 0 0 8.5e-07 2.0e-06 0 1e-06 
42 0 0 9.2e-23 0 0 0 1.1e-06 1.9e-06 0 1e-06 
43 0 0 9.2e-23 0 0 0 6.2e-07 2.1e-06 0 1e-06 
44 0 0 9.2e-23 0 0 0 1.4e-06 1.7e-06 0 1e-06 
45 0 0 9.2e-23 0 0 0 8.6e-07 2.0e-06 0 1e-06 
46 0 0 9.2e-23 0 0 0 1.1e-06 1.9e-06 0 1e-06 
47 0 0 9.2e-23 0 0 0 1.6e-06 1.5e-06 0 1e-06 
48 0 0 9.2e-23 0 0 0 9.e-08 2.2e-06 0 1e-06 
49 0 0 9.2e-23 0 0 0 8.e-07 2.0e-06 0 1e-06 
50 0 0 9.2e-23 0 0 0 2.2e-06 1.8e-07 0 1e-06 
51 0 0 9.2e-23 0 0 0 2.2e-06 3.1e-07 0 1e-06 
52 0 0 9.2e-23 0 0 0 1.7e-06 1.4e-06 0 1e-06 
53 0 0 9.2e-23 0 0 0 2.0e-06 8.1e-07 0 1e-06 
54 0 0 9.2e-23 0 0 0 2.0e-06 8.2e-07 0 1e-06 
55 0 0 9.2e-23 0 0 0 6.6e-08 2.2e-06 0 1e-06 
56 0 0 9.2e-23 0 0 0 8.1e-07 2.0e-06 0 1e-06 
57 0 0 9.2e-23 0 0 0 2.1e-06 5.7e-07 0 1e-06 
58 0 0 9.2e-23 0 0 0 2.0e-06 8.4e-07 0 1e-06 
59 0 0 9.2e-23 0 0 0 1.3e-06 1.8e-06 0 1e-06 
60 0 0 9.2e-23 0 0 0 2.0e-06 8.8e-07 0 1e-06 
61 0 0 9.2e-23 0 0 0 1.3e-06 1.8e-06 0 1e-06 
62 0 0 9.2e-23 0 0 0 1.1e-06 1.9e-06 0 1e-06 
63 0 0 9.2e-23 0 0 0 2.0e-06 7.8e-07 0 1e-06 
64 0 0 9.2e-23 0 0 0 1.7e-06 1.4e-06 0 1e-06 
65 0 0 9.2e-23 0 0 0 3.2e-07 2.2e-06 0 1e-06 
66 0 0 9.2e-23 0 0 0 1.7e-06 1.3e-06 0 1e-06 
67 0 0 9.2e-23 0 0 0 1.3e-06 1.5e-07 0 7.3e-07 
68 0 0 9.2e-23 0 0 0 9.1e-07 8.8e-07 0 7.3e-07 
69 0 0 9.2e-23 0 0 0 6.2e-07 1.1e-06 0 7.3e-07 
70 0 0 9.2e-23 0 0 0 5.1e-07 1.2e-06 0 7.3e-07 
71 0 0 9.2e-23 0 0 0 5.1e-07 1.2e-06 0 7.3e-07 
72 0 0 9.2e-23 0 0 0 1.6e-07 1.3e-06 0 7.3e-07 
73 0 0 9.2e-23 0 0 0 9.2e-07 8.7e-07 0 7.3e-07 
74 0 0 9.2e-23 0 0 0 1.2e-06 2.9e-07 0 7.3e-07 
75 0 0 9.2e-23 0 0 0 3.7e-07 1.2e-06 0 7.3e-07 
76 0 0 9.2e-23 0 0 0 1.1e-06 6.6e-07 0 7.3e-07 
77 0 0 9.2e-23 0 0 0 1.2e-06 4.5e-07 0 7.3e-07 
78 0 0 9.2e-23 0 0 0 1.1e-06 6.1e-07 0 7.3e-07 
79 0 0 9.2e-23 0 0 0 8.0e-07 9.8e-07 0 7.3e-07 
80 0 0 9.2e-23 0 0 0 1.2e-06 2.9e-07 0 7.3e-07 
81 0 0 9.2e-23 0 0 0 1.3e-06 1.0e-07 0 7.3e-07 
82 0 0 9.2e-23 0 0 0 5.6e-07 1.1e-06 0 7.3e-07 
83 0 0 9.2e-23 0 0 0 8.9e-07 9.e-07 0 7.3e-07 
84 0 0 9.2e-23 0 0 0 1.9e-07 1.3e-06 0 7.3e-07 
85 0 0 9.2e-23 0 0 0 1.1e-06 6.2e-07 0 7.3e-07 
86 0 0 9.2e-23 0 0 0 9.2e-07 8.7e-07 0 7.3e-07 
87 0 0 9.2e-23 0 0 0 1.3e-06 9.8e-08 0 7.3e-07 
88 0 0 9.2e-23 0 0 0 9.4e-07 8.5e-07 0 7.3e-07 
89 0 0 9.2e-23 0 0 0 4.3e-07 9.1e-07 0 7.3e-07 
90 0 0 9.2e-23 0 0 0 9.5e-07 3.3e-07 0 7.3e-07 
91 0 0 9.2e-23 0 0 0 7.9e-07 6.2e-07 0 7.3e-07 
92 0 0 9.2e-23 0 0 0 8.2e-07 5.8e-07 0 7.3e-07 
93 0 0 9.2e-23 0 0 0 5.3e-07 8.5e-07 0 7.3e-07 
94 0 0 9.2e-23 0 0 0 5.5e-07 8.4e-07 0 7.3e-07 
95 0 0 9.2e-23 0 0 0 5.e-07 8.7e-07 0 7.3e-07 
96 0 0 9.2e-23 0 0 0 3.1e-07 9.5e-07 0 7.3e-07 
97 0 0 9.2e-23 0 0 0 1.0e-06 1.7e-08 0 7.3e-07 
98 0 0 9.2e-23 0 0 0 9.5e-07 3.3e-07 0 7.3e-07 
99 0 0 9.2e-23 0 0 0 2.5e-07 9.7e-07 0 7.3e-07 
